TITLE     = "Dataset"
VARIABLES = "Time" "Resid" 
ZONE I=2000 J=1 f=point 
100         0.2317893699
200         0.1165546420
300         0.0744391842
400         0.0559739535
500         0.0387665588
600         0.0324292956
700         0.0272642120
800         0.0215881771
900         0.0200953248
1000         0.0195784833
1100         0.0177628981
1200         0.0158743625
1300         0.0148313694
1400         0.0145215512
1500         0.0129035308
1600         0.0126660954
1700         0.0114937834
1800         0.0115880220
1900         0.0104533941
2000         0.0100774084
2100         0.0104357765
2200         0.0105551820
2300         0.0097278523
2400         0.0107144416
2500         0.0115931474
2600         0.0117129685
2700         0.0125468527
2800         0.0132574711
2900         0.0135187323
3000         0.0135273441
3100         0.0134871203
3200         0.0132731707
3300         0.0124730584
3400         0.0124690557
3500         0.0119452945
3600         0.0106843649
3700         0.0107904996
3800         0.0098307935
3900         0.0089726161
4000         0.0084105894
4100         0.0080745932
4200         0.0077903163
4300         0.0096277976
4400         0.0086148854
4500         0.0073824333
4600         0.0068206326
4700         0.0075055746
4800         0.0076114638
4900         0.0070789353
5000         0.0063672199
5100         0.0056605464
5200         0.0059247093
5300         0.0063568878
5400         0.0072327520
5500         0.0068267327
5600         0.0086087896
5700         0.0099143830
5800         0.0091831502
5900         0.0086205333
6000         0.0073742955
6100         0.0064720835
6200         0.0062833925
6300         0.0061213820
6400         0.0053117036
6500         0.0069955054
6600         0.0055154997
6700         0.0050778113
6800         0.0044361191
6900         0.0044225787
7000         0.0060631300
7100         0.0036007992
7200         0.0028850766
7300         0.0027294814
7400         0.0026353342
7500         0.0023177314
7600         0.0022286872
7700         0.0021811969
7800         0.0025283976
7900         0.0019908176
8000         0.0020432393
8100         0.0022949889
8200         0.0019768155
8300         0.0016440845
8400         0.0012418463
8500         0.0012496390
8600         0.0011866156
8700         0.0011697045
8800         0.0011988716
8900         0.0012309227
9000         0.0011173775
9100         0.0010590065
9200         0.0010498483
9300         0.0010819038
9400         0.0011088264
9500         0.0011085808
9600         0.0010961574
9700         0.0010993740
9800         0.0011012962
9900         0.0011559204
10000         0.0011732645
10100         0.0011247347
10200         0.0010933426
10300         0.0010458733
10400         0.0010108135
10500         0.0010802768
10600         0.0010233241
10700         0.0010026409
10800         0.0009356589
10900         0.0010677473
11000         0.0010532480
11100         0.0009652907
11200         0.0010773491
11300         0.0010615791
11400         0.0009859787
11500         0.0011137479
11600         0.0011445472
11700         0.0010730571
11800         0.0010999346
11900         0.0011636086
12000         0.0010117043
12100         0.0010391100
12200         0.0011422488
12300         0.0009520949
12400         0.0010184065
12500         0.0009412716
12600         0.0010313447
12700         0.0012684760
12800         0.0028917817
12900         0.0039302056
13000         0.0041797053
13100         0.0049652962
13200         0.0046605910
13300         0.0054562429
13400         0.0050876645
13500         0.0053718909
13600         0.0045381463
13700         0.0041769335
13800         0.0032627899
13900         0.0024735025
14000         0.0015501709
14100         0.0012433931
14200         0.0012419666
14300         0.0011450336
14400         0.0011087908
14500         0.0011267183
14600         0.0011912005
14700         0.0011513249
14800         0.0012523832
14900         0.0012903378
15000         0.0013218408
15100         0.0013328819
15200         0.0011979990
15300         0.0013363085
15400         0.0015873668
15500         0.0018426582
15600         0.0027946650
15700         0.0022821010
15800         0.0021432196
15900         0.0019769296
16000         0.0018970819
16100         0.0020759262
16200         0.0019035747
16300         0.0018825405
16400         0.0020745311
16500         0.0022247405
16600         0.0022685906
16700         0.0021705135
16800         0.0022870104
16900         0.0022251650
17000         0.0021885914
17100         0.0024119842
17200         0.0045523385
17300         0.0038853863
17400         0.0029538601
17500         0.0026056293
17600         0.0026203932
17700         0.0024617762
17800         0.0022348704
17900         0.0019714816
18000         0.0019260007
18100         0.0016185282
18200         0.0020090470
18300         0.0023930096
18400         0.0016134093
18500         0.0019709245
18600         0.0019722256
18700         0.0027098306
18800         0.0033473422
18900         0.0028616797
19000         0.0023560807
19100         0.0021098136
19200         0.0018658478
19300         0.0020113417
19400         0.0017620745
19500         0.0018422843
19600         0.0013135698
19700         0.0014232728
19800         0.0012432848
19900         0.0015755819
20000         0.0013679587
20100         0.0013811923
20200         0.0016050839
20300         0.0016024896
20400         0.0013020535
20500         0.0013713441
20600         0.0013970121
20700         0.0012156123
20800         0.0013052365
20900         0.0015523148
21000         0.0010975602
21100         0.0012539356
21200         0.0009641773
21300         0.0011621609
21400         0.0011036057
21500         0.0011015493
21600         0.0011141654
21700         0.0009842275
21800         0.0010806143
21900         0.0009499507
22000         0.0008748568
22100         0.0011587268
22200         0.0009340350
22300         0.0009540672
22400         0.0009312390
22500         0.0011741643
22600         0.0009455953
22700         0.0008753700
22800         0.0010653978
22900         0.0008466009
23000         0.0008169499
23100         0.0008370909
23200         0.0011210422
23300         0.0012944859
23400         0.0020466037
23500         0.0021372692
23600         0.0030611357
23700         0.0023013064
23800         0.0017603114
23900         0.0056107022
24000         0.0027657286
24100         0.0018915236
24200         0.0017190350
24300         0.0021612184
24400         0.0017238067
24500         0.0023404708
24600         0.0021041525
24700         0.0018066520
24800         0.0016668247
24900         0.0013883247
25000         0.0013407274
25100         0.0011784086
25200         0.0009164752
25300         0.0007532486
25400         0.0006965911
25500         0.0005874054
25600         0.0005586869
25700         0.0005288809
25800         0.0005369863
25900         0.0005193731
26000         0.0005102425
26100         0.0005141737
26200         0.0005085330
26300         0.0005813060
26400         0.0007332806
26500         0.0009712102
26600         0.0012097959
26700         0.0012853817
26800         0.0012545882
26900         0.0012844982
27000         0.0012240604
27100         0.0016050874
27200         0.0014790819
27300         0.0015751614
27400         0.0016987425
27500         0.0014199766
27600         0.0024187567
27700         0.0017880289
27800         0.0030132556
27900         0.0020191613
28000         0.0032405204
28100         0.0025017570
28200         0.0038436894
28300         0.0043285351
28400         0.0042717966
28500         0.0046970266
28600         0.0057930707
28700         0.0048048857
28800         0.0049466858
28900         0.0050719996
29000         0.0043018564
29100         0.0042196708
29200         0.0036568880
29300         0.0049978179
29400         0.0047461240
29500         0.0047197740
29600         0.0056983408
29700         0.0055631606
29800         0.0059090687
29900         0.0052461521
30000         0.0047487899
30100         0.0043543937
30200         0.0049984191
30300         0.0041890113
30400         0.0039551301
30500         0.0051512498
30600         0.0044707628
30700         0.0070498623
30800         0.0068213477
30900         0.0047329526
31000         0.0046763661
31100         0.0042936852
31200         0.0048212060
31300         0.0049335485
31400         0.0048015269
31500         0.0050844062
31600         0.0059569073
31700         0.0072633606
31800         0.0052785654
31900         0.0051934371
32000         0.0039928405
32100         0.0035413556
32200         0.0037507841
32300         0.0040226010
32400         0.0045060398
32500         0.0040479810
32600         0.0042264958
32700         0.0039074988
32800         0.0050537096
32900         0.0038459343
33000         0.0047096707
33100         0.0043838523
33200         0.0036458081
33300         0.0032886704
33400         0.0030576710
33500         0.0024329435
33600         0.0021999824
33700         0.0018694520
33800         0.0015861884
33900         0.0012937215
34000         0.0011574811
34100         0.0012682305
34200         0.0022697521
34300         0.0017803277
34400         0.0015906203
34500         0.0014843400
34600         0.0012847152
34700         0.0014741092
34800         0.0013547348
34900         0.0013006515
35000         0.0011417989
35100         0.0015790898
35200         0.0014957371
35300         0.0013731386
35400         0.0014529695
35500         0.0016352937
35600         0.0024901185
35700         0.0049084055
35800         0.0038439148
35900         0.0032256436
36000         0.0033316020
36100         0.0033358603
36200         0.0030864503
36300         0.0035040029
36400         0.0028529438
36500         0.0023147443
36600         0.0028937129
36700         0.0024863738
36800         0.0026094793
36900         0.0025524187
37000         0.0019893822
37100         0.0019170442
37200         0.0026576779
37300         0.0041883618
37400         0.0034488724
37500         0.0030922809
37600         0.0025888506
37700         0.0029233453
37800         0.0021964608
37900         0.0022852805
38000         0.0021834987
38100         0.0016831781
38200         0.0021873231
38300         0.0018946685
38400         0.0021893617
38500         0.0020970209
38600         0.0020174744
38700         0.0021448182
38800         0.0019119773
38900         0.0026588611
39000         0.0031530684
39100         0.0039082956
39200         0.0051593976
39300         0.0048039957
39400         0.0051521009
39500         0.0043677010
39600         0.0038564965
39700         0.0035432937
39800         0.0030590488
39900         0.0026441273
40000         0.0026102714
40100         0.0019498844
40200         0.0016023755
40300         0.0016606573
40400         0.0014507662
40500         0.0017318528
40600         0.0014411663
40700         0.0010685547
40800         0.0012909140
40900         0.0014705689
41000         0.0011251697
41100         0.0016105136
41200         0.0013473258
41300         0.0010588828
41400         0.0013321025
41500         0.0014623221
41600         0.0010861884
41700         0.0015811632
41800         0.0013842931
41900         0.0012889875
42000         0.0015617937
42100         0.0016219635
42200         0.0012870721
42300         0.0017309837
42400         0.0016068297
42500         0.0013180750
42600         0.0015828267
42700         0.0016819390
42800         0.0013004135
42900         0.0017603110
43000         0.0016437011
43100         0.0012999295
43200         0.0015794983
43300         0.0016573063
43400         0.0014273947
43500         0.0018010109
43600         0.0017083969
43700         0.0014268412
43800         0.0015830949
43900         0.0017445070
44000         0.0016446199
44100         0.0016433678
44200         0.0018215856
44300         0.0017225256
44400         0.0017743195
44500         0.0024822041
44600         0.0037550841
44700         0.0021404053
44800         0.0055013024
44900         0.0042101201
45000         0.0041344274
45100         0.0039956199
45200         0.0033841204
45300         0.0031952263
45400         0.0028664350
45500         0.0026344259
45600         0.0023419798
45700         0.0021233382
45800         0.0023239565
45900         0.0022559224
46000         0.0019553604
46100         0.0024142613
46200         0.0021305453
46300         0.0019656470
46400         0.0020272750
46500         0.0022962372
46600         0.0019771279
46700         0.0024099181
46800         0.0021681239
46900         0.0024217057
47000         0.0019955387
47100         0.0028763393
47200         0.0021092630
47300         0.0026955895
47400         0.0024711909
47500         0.0024789048
47600         0.0023296629
47700         0.0023051665
47800         0.0026596131
47900         0.0019241742
48000         0.0029744910
48100         0.0023178816
48200         0.0035444854
48300         0.0022360254
48400         0.0034021336
48500         0.0022623664
48600         0.0027682673
48700         0.0026097646
48800         0.0025957914
48900         0.0029355654
49000         0.0026181374
49100         0.0037291247
49200         0.0023177069
49300         0.0036221839
49400         0.0025238838
49500         0.0032575219
49600         0.0025965609
49700         0.0029627675
49800         0.0028195882
49900         0.0026586581
50000         0.0035388588
50100         0.0025973208
50200         0.0038238394
50300         0.0025735227
50400         0.0024412839
50500         0.0020168908
50600         0.0027299752
50700         0.0028472605
50800         0.0026593461
50900         0.0023948923
51000         0.0019626722
51100         0.0013490202
51200         0.0016192698
51300         0.0017069757
51400         0.0012933388
51500         0.0015327472
51600         0.0015155557
51700         0.0011388068
51800         0.0013135815
51900         0.0015542848
52000         0.0011560805
52100         0.0014943640
52200         0.0014901002
52300         0.0011547085
52400         0.0013498421
52500         0.0015479278
52600         0.0012704246
52700         0.0014837859
52800         0.0014976609
52900         0.0011092994
53000         0.0012765674
53100         0.0015321909
53200         0.0011472497
53300         0.0015001207
53400         0.0014772645
53500         0.0011017518
53600         0.0013763158
53700         0.0015703790
53800         0.0013446177
53900         0.0015203326
54000         0.0015500690
54100         0.0012675710
54200         0.0014911658
54300         0.0017675019
54400         0.0014184471
54500         0.0016740260
54600         0.0017298254
54700         0.0012735937
54800         0.0014534935
54900         0.0017275963
55000         0.0013377532
55100         0.0017124483
55200         0.0016616146
55300         0.0012459801
55400         0.0016688804
55500         0.0017564373
55600         0.0013446472
55700         0.0016714526
55800         0.0017745417
55900         0.0015507717
56000         0.0016683144
56100         0.0016900063
56200         0.0015011294
56300         0.0016624378
56400         0.0016158250
56500         0.0013310478
56600         0.0015059462
56700         0.0017378863
56800         0.0016634620
56900         0.0018094380
57000         0.0018184994
57100         0.0017353999
57200         0.0016797024
57300         0.0020132132
57400         0.0017604557
57500         0.0017424907
57600         0.0018603699
57700         0.0017936133
57800         0.0015911465
57900         0.0017362954
58000         0.0019329391
58100         0.0014348446
58200         0.0020254559
58300         0.0021031830
58400         0.0017983188
58500         0.0019572477
58600         0.0018733642
58700         0.0017577548
58800         0.0018737652
58900         0.0019406735
59000         0.0018117187
59100         0.0021619774
59200         0.0020402025
59300         0.0019653704
59400         0.0014560954
59500         0.0021527509
59600         0.0018676752
59700         0.0020271890
59800         0.0019531046
59900         0.0018692622
60000         0.0014287195
60100         0.0016501635
60200         0.0016508245
60300         0.0014637351
60400         0.0014627937
60500         0.0015862572
60600         0.0014256767
60700         0.0011715735
60800         0.0015504524
60900         0.0015726458
61000         0.0010624792
61100         0.0015757418
61200         0.0015743956
61300         0.0011273651
61400         0.0014620337
61500         0.0015481782
61600         0.0012568896
61700         0.0015107961
61800         0.0016008756
61900         0.0014217158
62000         0.0012883070
62100         0.0015664855
62200         0.0015462329
62300         0.0016085325
62400         0.0016487037
62500         0.0020322317
62600         0.0014032538
62700         0.0017174907
62800         0.0019769120
62900         0.0015486312
63000         0.0017291391
63100         0.0019532366
63200         0.0015503327
63300         0.0016945397
63400         0.0017648269
63500         0.0016872446
63600         0.0015558618
63700         0.0018210990
63800         0.0018422936
63900         0.0016722530
64000         0.0017722851
64100         0.0018715736
64200         0.0014892125
64300         0.0015559655
64400         0.0018208823
64500         0.0015159784
64600         0.0016496415
64700         0.0017119054
64800         0.0014776600
64900         0.0015117019
65000         0.0015784570
65100         0.0015213822
65200         0.0012926675
65300         0.0015967091
65400         0.0014485644
65500         0.0012859401
65600         0.0014887091
65700         0.0015000286
65800         0.0011789971
65900         0.0015642571
66000         0.0014206525
66100         0.0011829557
66200         0.0014250416
66300         0.0015613749
66400         0.0011315586
66500         0.0016064726
66600         0.0013814074
66700         0.0012320372
66800         0.0014128322
66900         0.0015831359
67000         0.0012125358
67100         0.0016237537
67200         0.0014014231
67300         0.0012749628
67400         0.0014193649
67500         0.0015737516
67600         0.0012164818
67700         0.0016256160
67800         0.0012521020
67900         0.0011554433
68000         0.0014575824
68100         0.0013957805
68200         0.0015179327
68300         0.0014729379
68400         0.0011324932
68500         0.0012711818
68600         0.0016633451
68700         0.0012165075
68800         0.0017012561
68900         0.0012866202
69000         0.0011225730
69100         0.0014030400
69200         0.0015694591
69300         0.0012756868
69400         0.0015936437
69500         0.0010827116
69600         0.0011428610
69700         0.0016097653
69800         0.0011260050
69900         0.0016581559
70000         0.0011581333
70100         0.0009785117
70200         0.0011702915
70300         0.0013672520
70400         0.0008614294
70500         0.0015587497
70600         0.0011357700
70700         0.0010021419
70800         0.0011652510
70900         0.0013335306
71000         0.0009582014
71100         0.0016470992
71200         0.0011844420
71300         0.0009771008
71400         0.0012301018
71500         0.0014855236
71600         0.0010293042
71700         0.0015437194
71800         0.0011638651
71900         0.0009722893
72000         0.0010805534
72100         0.0015644391
72200         0.0012030996
72300         0.0014719907
72400         0.0012653454
72500         0.0010274048
72600         0.0011434843
72700         0.0015427003
72800         0.0013327827
72900         0.0015051143
73000         0.0014672430
73100         0.0011106766
73200         0.0010033190
73300         0.0013524412
73400         0.0012628672
73500         0.0010706712
73600         0.0017448282
73700         0.0012477907
73800         0.0015954391
73900         0.0013954884
74000         0.0020533179
74100         0.0013292770
74200         0.0017662174
74300         0.0017907828
74400         0.0012152113
74500         0.0015190465
74600         0.0017799287
74700         0.0012123062
74800         0.0019421363
74900         0.0013978612
75000         0.0012599385
75100         0.0017054934
75200         0.0017108291
75300         0.0013533062
75400         0.0018796004
75500         0.0013760334
75600         0.0017968835
75700         0.0014005155
75800         0.0017065437
75900         0.0017701213
76000         0.0017602079
76100         0.0016594355
76200         0.0017225834
76300         0.0013379453
76400         0.0018121518
76500         0.0016767144
76600         0.0018039158
76700         0.0016534789
76800         0.0013616453
76900         0.0014614628
77000         0.0018192075
77100         0.0013117506
77200         0.0018470161
77300         0.0013440714
77400         0.0011859656
77500         0.0015607354
77600         0.0015770905
77700         0.0015301289
77800         0.0016479322
77900         0.0012523271
78000         0.0013887419
78100         0.0017035494
78200         0.0013310925
78300         0.0017336814
78400         0.0014896598
78500         0.0012880573
78600         0.0014977869
78700         0.0016997947
78800         0.0012867396
78900         0.0017281111
79000         0.0013750687
79100         0.0012426079
79200         0.0015161837
79300         0.0014949907
79400         0.0014716391
79500         0.0015981983
79600         0.0011771671
79700         0.0012998894
79800         0.0016233966
79900         0.0012958556
80000         0.0016465915
80100         0.0013856458
80200         0.0013119260
80300         0.0015017682
80400         0.0016079091
80500         0.0012714157
80600         0.0016978702
80700         0.0012995282
80800         0.0012812694
80900         0.0015978528
81000         0.0014071599
81100         0.0015711071
81200         0.0016793009
81300         0.0012128496
81400         0.0013553167
81500         0.0016789421
81600         0.0013738756
81700         0.0016489161
81800         0.0015867024
81900         0.0011952215
82000         0.0014101106
82100         0.0016646926
82200         0.0012897065
82300         0.0016415022
82400         0.0015142323
82500         0.0013164506
82600         0.0014714856
82700         0.0015943385
82800         0.0012528194
82900         0.0016204927
83000         0.0013676874
83100         0.0013055749
83200         0.0014295956
83300         0.0015317851
83400         0.0011907985
83500         0.0015562128
83600         0.0012884652
83700         0.0012486453
83800         0.0014464104
83900         0.0014461106
84000         0.0011992938
84100         0.0015508488
84200         0.0012721349
84300         0.0012817391
84400         0.0014340879
84500         0.0015073961
84600         0.0011610200
84700         0.0015805157
84800         0.0013503811
84900         0.0012442472
85000         0.0014339236
85100         0.0015257457
85200         0.0011323411
85300         0.0015453654
85400         0.0013664803
85500         0.0012471683
85600         0.0014310561
85700         0.0016097535
85800         0.0011892000
85900         0.0015785832
86000         0.0014025060
86100         0.0011123782
86200         0.0014445542
86300         0.0015693909
86400         0.0011595786
86500         0.0015853846
86600         0.0014331914
86700         0.0011271902
86800         0.0014313858
86900         0.0015968710
87000         0.0011636344
87100         0.0015069331
87200         0.0013881855
87300         0.0010364544
87400         0.0014064080
87500         0.0015254513
87600         0.0011454626
87700         0.0015293811
87800         0.0013684265
87900         0.0011510936
88000         0.0014150325
88100         0.0015248426
88200         0.0011047803
88300         0.0015584080
88400         0.0014163871
88500         0.0010878935
88600         0.0013746769
88700         0.0015517036
88800         0.0011510707
88900         0.0015028765
89000         0.0014008074
89100         0.0010088170
89200         0.0013869798
89300         0.0015650501
89400         0.0011250597
89500         0.0015376552
89600         0.0014200768
89700         0.0010332596
89800         0.0013648500
89900         0.0015604727
90000         0.0011967307
90100         0.0015180779
90200         0.0014412096
90300         0.0010333759
90400         0.0013931167
90500         0.0015974698
90600         0.0011873945
90700         0.0015390979
90800         0.0014554836
90900         0.0010321662
91000         0.0013205186
91100         0.0016018552
91200         0.0011837342
91300         0.0015439716
91400         0.0014406359
91500         0.0010565781
91600         0.0012953295
91700         0.0015827233
91800         0.0012052728
91900         0.0015928688
92000         0.0014203297
92100         0.0011755838
92200         0.0013955569
92300         0.0015796299
92400         0.0011756932
92500         0.0015788599
92600         0.0014161427
92700         0.0012437593
92800         0.0014445142
92900         0.0016312442
93000         0.0012025513
93100         0.0016334293
93200         0.0014248005
93300         0.0013354909
93400         0.0014983795
93500         0.0016306245
93600         0.0012339379
93700         0.0016472737
93800         0.0013867525
93900         0.0013148294
94000         0.0015147203
94100         0.0016017906
94200         0.0013087322
94300         0.0016953047
94400         0.0017011077
94500         0.0013577823
94600         0.0015217092
94700         0.0015645152
94800         0.0012890041
94900         0.0016289145
95000         0.0012262944
95100         0.0012139829
95200         0.0015688540
95300         0.0013243588
95400         0.0015144798
95500         0.0014371299
95600         0.0010702268
95700         0.0013373375
95800         0.0016036522
95900         0.0011833173
96000         0.0016839784
96100         0.0012933352
96200         0.0012261616
96300         0.0014239355
96400         0.0014716561
96500         0.0013730982
96600         0.0015534998
96700         0.0011443228
96800         0.0011832234
96900         0.0015227231
97000         0.0012458059
97100         0.0016132367
97200         0.0014505112
97300         0.0011901296
97400         0.0013606062
97500         0.0016149367
97600         0.0011844918
97700         0.0016191014
97800         0.0012260602
97900         0.0011486404
98000         0.0014938284
98100         0.0013840313
98200         0.0014832766
98300         0.0015318601
98400         0.0010452067
98500         0.0012681744
98600         0.0015959233
98700         0.0012551668
98800         0.0016084161
98900         0.0013774886
99000         0.0012043740
99100         0.0013431433
99200         0.0016415606
99300         0.0011700543
99400         0.0016473715
99500         0.0012467893
99600         0.0011373611
99700         0.0014329622
99800         0.0013999781
99900         0.0014064617
100000         0.0015969515
100100         0.0011023850
100200         0.0011871955
100300         0.0015381089
100400         0.0012541910
100500         0.0015584609
100600         0.0014227588
100700         0.0011795591
100800         0.0013748345
100900         0.0016624485
101000         0.0012382031
101100         0.0016966032
101200         0.0013443156
101300         0.0012845086
101400         0.0015245290
101500         0.0014882174
101600         0.0014358528
101700         0.0016233767
101800         0.0012046188
101900         0.0012692683
102000         0.0016465818
102100         0.0013577220
102200         0.0016868142
102300         0.0015132642
102400         0.0013268838
102500         0.0014894337
102600         0.0017415566
102700         0.0013227359
102800         0.0017373087
102900         0.0014371042
103000         0.0012910391
103100         0.0014787307
103200         0.0015318638
103300         0.0013574629
103400         0.0016006859
103500         0.0011667784
103600         0.0012603593
103700         0.0015961427
103800         0.0013151112
103900         0.0016443259
104000         0.0014403120
104100         0.0011898518
104200         0.0013917178
104300         0.0016175061
104400         0.0012004396
104500         0.0016840070
104600         0.0013059406
104700         0.0011970937
104800         0.0014246275
104900         0.0014613015
105000         0.0012936525
105100         0.0015762670
105200         0.0011107457
105300         0.0011879142
105400         0.0015437986
105500         0.0012410324
105600         0.0015733358
105700         0.0014607303
105800         0.0011285861
105900         0.0013493987
106000         0.0016550081
106100         0.0011931888
106200         0.0016559966
106300         0.0013590671
106400         0.0012647114
106500         0.0014126638
106600         0.0015357862
106700         0.0012885303
106800         0.0016039522
106900         0.0011799765
107000         0.0012093600
107100         0.0015934832
107200         0.0013264500
107300         0.0016178021
107400         0.0014864591
107500         0.0012392111
107600         0.0013852371
107700         0.0016406914
107800         0.0012552385
107900         0.0016976436
108000         0.0013708416
108100         0.0013007804
108200         0.0015146521
108300         0.0015941189
108400         0.0013031514
108500         0.0016692794
108600         0.0013066148
108700         0.0013260125
108800         0.0015848522
108900         0.0014927809
109000         0.0017348566
109100         0.0016585663
109200         0.0016134250
109300         0.0015671558
109400         0.0018858771
109500         0.0015527581
109600         0.0017386339
109700         0.0017199511
109800         0.0013475508
109900         0.0015209101
110000         0.0017585014
110100         0.0013053847
110200         0.0019101687
110300         0.0013865794
110400         0.0016836819
110500         0.0016678029
110600         0.0020540637
110700         0.0017238861
110800         0.0017915696