TITLE     = "Dataset"
VARIABLES = "Time" "Resid" 
ZONE I=2000 J=1 f=point 
10         0.6477787013
20         0.5705375560
30         0.5024258643
40         0.4604595979
50         0.4231050538
60         0.3768494250
70         0.3474741509
80         0.3078782864
90         0.2819731099
100         0.2687503569
110         0.2657411099
120         0.2595024962
130         0.2508752123
140         0.2378785220
150         0.2256742271
160         0.2157915732
170         0.2160263162
180         0.2082849537
190         0.1929685396
200         0.1736369068
210         0.1622915166
220         0.1626181639
230         0.1667431519
240         0.1752214761
250         0.1851115455
260         0.1909041713
270         0.1899753490
280         0.1818697200
290         0.1698725077
300         0.1537116431
310         0.1420162780
320         0.1351378229
330         0.1341169701
340         0.1375436540
350         0.1419850074
360         0.1399192503
370         0.1314033252
380         0.1276751502
390         0.1311791183
400         0.1368300756
410         0.1462518888
420         0.1447968429
430         0.1372507191
440         0.1312646270
450         0.1335062972
460         0.1439602029
470         0.1485772429
480         0.1475217895
490         0.1529072450
500         0.1549632420
510         0.1611897860
520         0.1626400056
530         0.1679349669
540         0.1851018776
550         0.1869540093
560         0.1809259316
570         0.1817686105
580         0.1839991738
590         0.1828472925
600         0.2005297257
610         0.2177826162
620         0.2138342583
630         0.2160798418
640         0.2111103966
650         0.2185514290
660         0.2097196655
670         0.2072288098
680         0.2082054116
690         0.2043157341
700         0.2127461470
710         0.2001057123
720         0.1963536193
730         0.1849272798
740         0.1743006869
750         0.1710345902
760         0.1725791085
770         0.1751480672
780         0.1768768989
790         0.1675539393
800         0.1689112206
810         0.1720022263
820         0.1580319888
830         0.1676276433
840         0.1546573823
850         0.1527888804
860         0.1496650808
870         0.1576006851
880         0.1555133718
890         0.1501493687
900         0.1500793143
910         0.1433465925
920         0.1379143528
930         0.1410400620
940         0.1369706459
950         0.1367543213
960         0.1299159516
970         0.1283694047
980         0.1236061914
990         0.1193192124
1000         0.1183643860
1010         0.1256410919
1020         0.1272805904
1030         0.1171412083
1040         0.1102752942
1050         0.0984993950
1060         0.0954453777
1070         0.0993378049
1080         0.1079326007
1090         0.0977674320
1100         0.0955051951
1110         0.0932155217
1120         0.0907503248
1130         0.0910813649
1140         0.0834921974
1150         0.0777829117
1160         0.0794922264
1170         0.0761351174
1180         0.0720532619
1190         0.0746033261
1200         0.0723110112
1210         0.0666635662
1220         0.0678508465
1230         0.0670046453
1240         0.0652800811
1250         0.0670430877
1260         0.0673662946
1270         0.0690597341
1280         0.0686041249
1290         0.0643549466
1300         0.0639736181
1310         0.0625098126
1320         0.0595873653
1330         0.0606649609
1340         0.0592485430
1350         0.0559050913
1360         0.0518672458
1370         0.0539838597
1380         0.0557340620
1390         0.0538334564
1400         0.0545752596
1410         0.0542840951
1420         0.0524803863
1430         0.0516700994
1440         0.0507184264
1450         0.0505736767
1460         0.0506262442
1470         0.0497837852
1480         0.0497427383
1490         0.0499291027
1500         0.0495138856
1510         0.0493999817
1520         0.0486099740
1530         0.0481243952
1540         0.0479421224
1550         0.0472278703
1560         0.0464913400
1570         0.0457885815
1580         0.0454358983
1590         0.0440322692
1600         0.0423969372
1610         0.0419058322
1620         0.0409808621
1630         0.0400119399
1640         0.0395734614
1650         0.0390072703
1660         0.0385425525
1670         0.0375374147
1680         0.0369396491
1690         0.0364310791
1700         0.0358507409
1710         0.0353741948
1720         0.0343662783
1730         0.0336492959
1740         0.0334708320
1750         0.0329881083
1760         0.0325798462
1770         0.0323892031
1780         0.0320616257
1790         0.0316639062
1800         0.0315578843
1810         0.0314164525
1820         0.0311102804
1830         0.0308811175
1840         0.0306057503
1850         0.0303834495
1860         0.0299970537
1870         0.0293200310
1880         0.0285895573
1890         0.0279392550
1900         0.0274469537
1910         0.0271278047
1920         0.0266014221
1930         0.0261020796
1940         0.0257150956
1950         0.0255242077
1960         0.0254800321
1970         0.0254154696
1980         0.0255116687
1990         0.0253063636
2000         0.0254086232
2010         0.0255626385
2020         0.0255142528
2030         0.0258535070
2040         0.0258718177
2050         0.0258984838
2060         0.0260740463
2070         0.0267430828
2080         0.0270468039
2090         0.0274347778
2100         0.0275200803
2110         0.0273458573
2120         0.0278523324
2130         0.0278066488
2140         0.0277100513
2150         0.0277907261
2160         0.0277258113
2170         0.0273054920
2180         0.0265746411
2190         0.0267552412
2200         0.0266571323
2210         0.0255534272
2220         0.0246963138
2230         0.0243929532
2240         0.0247880740
2250         0.0247206455
2260         0.0242469836
2270         0.0240833668
2280         0.0242913679
2290         0.0245289721
2300         0.0242101255
2310         0.0241945988
2320         0.0248414017
2330         0.0247909611
2340         0.0249573241
2350         0.0232140080
2360         0.0225658005
2370         0.0229687813
2380         0.0229930721
2390         0.0241618298
2400         0.0237355779
2410         0.0238001078
2420         0.0245457721
2430         0.0245347070
2440         0.0230359869
2450         0.0228648232
2460         0.0229642826
2470         0.0227929521
2480         0.0230283026
2490         0.0221825853
2500         0.0218866819
2510         0.0218044581
2520         0.0209785795
2530         0.0206390189
2540         0.0201502688
2550         0.0197090931
2560         0.0198895957
2570         0.0199258528
2580         0.0195247491
2590         0.0185323496
2600         0.0176017396
2610         0.0170942325
2620         0.0171522685
2630         0.0174043704
2640         0.0180771949
2650         0.0190524063
2660         0.0188244091
2670         0.0183417333
2680         0.0188169032
2690         0.0195055276
2700         0.0189284867
2710         0.0180667564
2720         0.0185655139
2730         0.0181540958
2740         0.0180207095
2750         0.0182439621
2760         0.0173847019
2770         0.0174302908
2780         0.0179549329
2790         0.0180738368
2800         0.0179269122
2810         0.0172948859
2820         0.0170040441
2830         0.0164126731
2840         0.0158063558
2850         0.0151163558
2860         0.0151310111
2870         0.0156171661
2880         0.0154288685
2890         0.0149132649
2900         0.0143799418
2910         0.0141540151
2920         0.0141644822
2930         0.0143630870
2940         0.0140471768
2950         0.0136714182
2960         0.0135690588
2970         0.0136641964
2980         0.0134431964
2990         0.0135206613
3000         0.0131334844
3010         0.0124642624
3020         0.0126171098
3030         0.0129083770
3040         0.0127992516
3050         0.0129838727
3060         0.0130533684
3070         0.0127383090
3080         0.0122701057
3090         0.0120177773
3100         0.0115611147
3110         0.0114798729
3120         0.0113051735
3130         0.0112256300
3140         0.0116602377
3150         0.0117334276
3160         0.0113467914
3170         0.0109295982
3180         0.0105471765
3190         0.0104239096
3200         0.0101741325
3210         0.0103444891
3220         0.0102459880
3230         0.0096962706
3240         0.0091404206
3250         0.0091582821
3260         0.0093853420
3270         0.0092124378
3280         0.0092225367
3290         0.0093249006
3300         0.0087281526
3310         0.0083314438
3320         0.0087244236
3330         0.0085856451
3340         0.0085964477
3350         0.0084712556
3360         0.0082432764
3370         0.0079112113
3380         0.0078150323
3390         0.0084048515
3400         0.0083422363
3410         0.0085576337
3420         0.0082731847
3430         0.0078751631
3440         0.0075865896
3450         0.0074348563
3460         0.0076404535
3470         0.0080893640
3480         0.0083585762
3490         0.0081072740
3500         0.0078489871
3510         0.0076722197
3520         0.0074123967
3530         0.0073309993
3540         0.0074957201
3550         0.0074041826
3560         0.0070246487
3570         0.0068630886
3580         0.0067129870
3590         0.0066997542
3600         0.0068824983
3610         0.0069996463
3620         0.0068166264
3630         0.0066710982
3640         0.0068306390
3650         0.0070162945
3660         0.0069724360
3670         0.0065102892
3680         0.0063229649
3690         0.0063883441
3700         0.0065149407
3710         0.0070068655
3720         0.0076417928
3730         0.0072848170
3740         0.0070511619
3750         0.0072735264
3760         0.0072049107
3770         0.0069858810
3780         0.0069541966
3790         0.0067326479
3800         0.0066043543
3810         0.0070900881
3820         0.0073329591
3830         0.0073040512
3840         0.0074646956
3850         0.0072680662
3860         0.0066348767
3870         0.0068250769
3880         0.0071625844
3890         0.0070787637
3900         0.0070827892
3910         0.0072338569
3920         0.0074413309
3930         0.0070915852
3940         0.0070415285
3950         0.0071628157
3960         0.0071524550
3970         0.0072157996
3980         0.0073118282
3990         0.0076347518
4000         0.0081207352
4010         0.0083311903
4020         0.0080110998
4030         0.0075266887
4040         0.0069220838
4050         0.0061150427
4060         0.0064757154
4070         0.0075277498
4080         0.0084054087
4090         0.0083839391
4100         0.0080550415
4110         0.0078762352
4120         0.0080833051
4130         0.0093859597
4140         0.0102248318
4150         0.0107773317
4160         0.0131464860
4170         0.0136671577
4180         0.0127563412
4190         0.0101004858
4200         0.0079974241
4210         0.0077170807
4220         0.0086749536
4230         0.0095809235
4240         0.0097958878
4250         0.0089919986
4260         0.0080253844
4270         0.0075005327
4280         0.0076098086
4290         0.0079537930
4300         0.0079405831
4310         0.0080688877
4320         0.0082207667
4330         0.0081016062
4340         0.0075117094
4350         0.0071566019
4360         0.0068335433
4370         0.0064785874
4380         0.0066428241
4390         0.0068658209
4400         0.0069422705
4410         0.0072308774
4420         0.0071762255
4430         0.0065539883
4440         0.0058283077
4450         0.0059047378
4460         0.0059191316
4470         0.0056931661
4480         0.0058327599
4490         0.0058715900
4500         0.0057595564
4510         0.0059206439
4520         0.0061475479
4530         0.0059380085
4540         0.0062624099
4550         0.0066505552
4560         0.0071028735
4570         0.0072263137
4580         0.0069242341
4590         0.0059892524
4600         0.0053052721
4610         0.0062371154
4620         0.0075986874
4630         0.0082724798
4640         0.0088828948
4650         0.0081719133
4660         0.0073516015
4670         0.0079831080
4680         0.0084492920
4690         0.0086442451
4700         0.0077096337
4710         0.0072489964
4720         0.0067020319
4730         0.0071208629
4740         0.0071730669
4750         0.0065628265
4760         0.0061257768
4770         0.0060166852
4780         0.0057326316
4790         0.0055071547
4800         0.0054793073
4810         0.0051855970
4820         0.0051381362
4830         0.0055349205
4840         0.0057566394
4850         0.0053935302
4860         0.0054142289
4870         0.0054293552
4880         0.0045977882
4890         0.0046070638
4900         0.0046830744
4910         0.0043450073
4920         0.0040738451
4930         0.0044970687
4940         0.0045016787
4950         0.0040423371
4960         0.0043190990
4970         0.0042785457
4980         0.0037615869
4990         0.0039967104
5000         0.0040442196
5010         0.0035982863
5020         0.0037837908
5030         0.0036841707
5040         0.0032121546
5050         0.0034362570
5060         0.0037837951
5070         0.0034563154
5080         0.0031967749
5090         0.0034125721
5100         0.0033869073
5110         0.0032041834
5120         0.0037219586
5130         0.0035237337
5140         0.0030147591
5150         0.0033797858
5160         0.0036670373
5170         0.0032346290
5180         0.0037070328
5190         0.0036070034
5200         0.0029640630
5210         0.0032036264
5220         0.0036068265
5230         0.0033010248
5240         0.0032798368
5250         0.0035142571
5260         0.0032562886
5270         0.0030165683
5280         0.0036221337
5290         0.0035451187
5300         0.0030626388
5310         0.0034843951
5320         0.0031853572
5330         0.0027019340
5340         0.0033515240
5350         0.0035652144
5360         0.0029191570
5370         0.0032573498
5380         0.0032343219
5390         0.0029814257
5400         0.0029573097
5410         0.0033941147
5420         0.0028734263
5430         0.0027724707
5440         0.0031756220
5450         0.0030288222
5460         0.0026835365
5470         0.0032419693
5480         0.0032268969
5490         0.0026145083
5500         0.0032084089
5510         0.0032774886
5520         0.0026522462
5530         0.0030506278
5540         0.0032194513
5550         0.0027710717
5560         0.0030197008
5570         0.0033351387
5580         0.0030728066
5590         0.0027586053
5600         0.0031397348
5610         0.0031010856
5620         0.0028217737
5630         0.0033461525
5640         0.0032669610
5650         0.0025430297
5660         0.0030309803
5670         0.0032576528
5680         0.0027923309
5690         0.0032065191
5700         0.0032759157
5710         0.0026759814
5720         0.0029167395
5730         0.0032707254
5740         0.0030634453
5750         0.0029398622
5760         0.0032852625
5770         0.0031144383
5780         0.0027593904
5790         0.0032855323
5800         0.0033591278
5810         0.0028138251
5820         0.0034505753
5830         0.0032893870
5840         0.0026911731
5850         0.0031643478
5860         0.0033869576
5870         0.0028479997
5880         0.0030586764
5890         0.0033516549
5900         0.0032309616
5910         0.0030176550
5920         0.0034180819
5930         0.0029948020
5940         0.0027603402
5950         0.0033556308
5960         0.0031209047
5970         0.0027648126
5980         0.0032888018
5990         0.0032925005
6000         0.0026056970
6010         0.0032511630
6020         0.0031624513
6030         0.0026882243
6040         0.0028918275
6050         0.0032135706
6060         0.0026481856
6070         0.0028426024
6080         0.0030939119
6090         0.0028121080
6100         0.0024920477
6110         0.0030603919
6120         0.0029648306
6130         0.0026110246
6140         0.0031859743
6150         0.0028962564
6160         0.0021550374
6170         0.0028896278
6180         0.0031977540
6190         0.0026745442
6200         0.0029989403
6210         0.0029831170
6220         0.0026203239
6230         0.0026749820
6240         0.0031658354
6250         0.0028830781
6260         0.0026149716
6270         0.0030158596
6280         0.0028761970
6290         0.0024470258
6300         0.0030392699
6310         0.0031584437
6320         0.0025081391
6330         0.0030302748
6340         0.0030405202
6350         0.0023531327
6360         0.0029284078
6370         0.0031771738
6380         0.0026430390
6390         0.0027643872
6400         0.0030249136
6410         0.0028620017
6420         0.0026442213
6430         0.0030809181
6440         0.0030373162
6450         0.0024428578
6460         0.0031714389
6470         0.0030914323
6480         0.0024359630
6490         0.0029750490
6500         0.0031941938
6510         0.0026201418
6520         0.0030973417
6530         0.0031904342
6540         0.0026070471
6550         0.0027843982
6560         0.0031671627
6570         0.0028003266
6580         0.0027843161
6590         0.0031731268
6600         0.0029444914
6610         0.0025173889
6620         0.0030908397
6630         0.0031290786
6640         0.0026850035
6650         0.0032519937
6660         0.0030843617
6670         0.0023787742
6680         0.0029271040
6690         0.0032069099
6700         0.0026513569
6710         0.0030832853
6720         0.0030880677
6730         0.0027657047
6740         0.0027374325
6750         0.0031625718
6760         0.0028260706
6770         0.0026438982
6780         0.0031009008
6790         0.0028503184
6800         0.0024536262
6810         0.0030374325
6820         0.0031372131
6830         0.0025095984
6840         0.0030845837
6850         0.0030036777
6860         0.0022924891
6870         0.0028463884
6880         0.0031494600
6890         0.0026095317
6900         0.0027666249
6910         0.0029829804
6920         0.0027940197
6930         0.0025808843
6940         0.0030653353
6950         0.0028233891
6960         0.0024583538
6970         0.0030707549
6980         0.0028975990
6990         0.0023419159
7000         0.0029162682
7010         0.0030998237
7020         0.0024659973
7030         0.0030222112
7040         0.0030748626
7050         0.0023826629
7060         0.0027299041
7070         0.0030942686
7080         0.0026730322
7090         0.0027294302
7100         0.0030472090
7110         0.0028575819
7120         0.0024464536
7130         0.0030183362
7140         0.0030145539
7150         0.0025026442
7160         0.0031304224
7170         0.0029586164
7180         0.0022170687
7190         0.0028133230
7200         0.0031005105
7210         0.0025905184
7220         0.0029870545
7230         0.0029950828
7240         0.0025292414
7250         0.0026900802
7260         0.0030985536
7270         0.0027179509
7280         0.0026366748
7290         0.0031079101
7300         0.0028988192
7310         0.0025455840
7320         0.0030485195
7330         0.0030597474
7340         0.0023961212
7350         0.0030951622
7360         0.0030403837
7370         0.0023000885
7380         0.0028091705
7390         0.0030854057
7400         0.0025469649
7410         0.0028092548
7420         0.0030141172
7430         0.0027803558
7440         0.0025376123
7450         0.0030357048
7460         0.0027701338
7470         0.0024951689
7480         0.0030554691
7490         0.0028311452
7500         0.0023063270
7510         0.0029407637
7520         0.0030944514
7530         0.0024748414
7540         0.0030640046
7550         0.0029991552
7560         0.0022793199
7570         0.0027840744
7580         0.0031005200
7590         0.0026852165
7600         0.0028155328
7610         0.0030356056
7620         0.0028009285
7630         0.0025197172
7640         0.0030646412
7650         0.0028615658
7660         0.0025021800
7670         0.0031135135
7680         0.0029081948
7690         0.0022859049
7700         0.0029181645
7710         0.0030908184
7720         0.0025152690
7730         0.0029156847
7740         0.0029804955
7750         0.0024263380
7760         0.0026760627
7770         0.0031032123
7780         0.0026938215
7790         0.0026620914
7800         0.0030446359
7810         0.0028842674
7820         0.0024909455
7830         0.0030393045
7840         0.0030336143
7850         0.0024825466
7860         0.0031601585
7870         0.0030497515
7880         0.0023538097
7890         0.0028729313
7900         0.0031264757
7910         0.0026063977
7920         0.0029491718
7930         0.0030802941
7940         0.0027784691
7950         0.0027515896
7960         0.0031787034
7970         0.0027944175
7980         0.0026948261
7990         0.0031391351
8000         0.0029175003
8010         0.0025175766
8020         0.0030543702
8030         0.0031962075
8040         0.0025580541
8050         0.0031413334
8060         0.0030858959
8070         0.0023910264
8080         0.0028982651
8090         0.0031891828
8100         0.0027229796
8110         0.0029581699
8120         0.0030976600
8130         0.0028465278
8140         0.0026548429
8150         0.0031754369
8160         0.0029371736
8170         0.0026678336
8180         0.0032365242
8190         0.0030126159
8200         0.0024543356
8210         0.0030133879
8220         0.0031722681
8230         0.0025980798
8240         0.0031255921
8250         0.0031171416
8260         0.0024550191
8270         0.0029096688
8280         0.0032160415
8290         0.0027167926
8300         0.0027913199
8310         0.0030705598
8320         0.0028943691
8330         0.0025651316
8340         0.0031226976
8350         0.0031251000
8360         0.0025346075
8370         0.0031445042
8380         0.0030052112
8390         0.0023846459
8400         0.0029559320
8410         0.0031634808
8420         0.0027173183
8430         0.0030720017
8440         0.0030964416
8450         0.0027507724
8460         0.0027267667
8470         0.0032086978
8480         0.0028650358
8490         0.0027679151
8500         0.0032128775
8510         0.0029962987
8520         0.0025424670
8530         0.0031190308
8540         0.0032236924
8550         0.0026665481
8560         0.0032473235
8570         0.0031562035
8580         0.0025001280
8590         0.0029629953
8600         0.0031954458
8610         0.0027202504
8620         0.0029707219
8630         0.0031461949
8640         0.0029005677
8650         0.0027516108
8660         0.0032286892
8670         0.0029454200
8680         0.0026655081
8690         0.0032020109
8700         0.0030011989
8710         0.0025390436
8720         0.0030869072
8730         0.0032277235
8740         0.0026581192
8750         0.0031106078
8760         0.0030744798
8770         0.0024714661
8780         0.0029369086
8790         0.0031995189
8800         0.0027578584
8810         0.0029031902
8820         0.0031356515
8830         0.0028965715
8840         0.0026139387
8850         0.0031427787
8860         0.0030839265
8870         0.0025834565
8880         0.0032374424
8890         0.0030996143
8900         0.0024144264
8910         0.0029239727
8920         0.0031597412
8930         0.0026304624
8940         0.0030584642
8950         0.0031481665
8960         0.0026866347
8970         0.0028438760
8980         0.0031821395
8990         0.0027963627
9000         0.0027847100
9010         0.0031648330
9020         0.0029399161
9030         0.0025775002
9040         0.0031343422
9050         0.0032001717
9060         0.0025618861
9070         0.0031704261
9080         0.0030604652
9090         0.0023795832
9100         0.0029558645
9110         0.0031594333
9120         0.0027356029
9130         0.0029998363
9140         0.0030518260
9150         0.0028285767
9160         0.0026906456
9170         0.0031851330
9180         0.0029226624
9190         0.0026505005
9200         0.0032138250
9210         0.0029864592
9220         0.0024238992
9230         0.0030701006
9240         0.0032018602
9250         0.0026303356
9260         0.0031378501
9270         0.0031255624
9280         0.0025228612
9290         0.0029020386
9300         0.0032081885
9310         0.0027423080
9320         0.0028336905
9330         0.0031589563
9340         0.0029495224
9350         0.0026682993
9360         0.0031793954
9370         0.0030612532
9380         0.0026005394
9390         0.0032107459
9400         0.0030474513
9410         0.0024338818
9420         0.0029879239
9430         0.0032108968
9440         0.0027344154
9450         0.0030950253
9460         0.0031047409
9470         0.0025186214
9480         0.0028569278
9490         0.0032201982
9500         0.0028004744
9510         0.0029140932
9520         0.0032391694
9530         0.0029648918
9540         0.0026686932
9550         0.0031455387
9560         0.0030923167
9570         0.0026024948
9580         0.0033017957
9590         0.0031699554
9600         0.0024835727
9610         0.0030208758
9620         0.0032050358
9630         0.0026565881
9640         0.0030072970
9650         0.0031028411
9660         0.0028442589
9670         0.0028133081
9680         0.0032159227
9690         0.0028269181
9700         0.0026466841
9710         0.0030857616
9720         0.0029541590
9730         0.0025033355
9740         0.0030499226
9750         0.0032050307
9760         0.0025801773
9770         0.0031318263
9780         0.0031186175
9790         0.0024006345
9800         0.0029081709
9810         0.0031832695
9820         0.0027743944
9830         0.0029637962
9840         0.0031068118
9850         0.0028833782
9860         0.0026679133
9870         0.0031635242
9880         0.0029603789
9890         0.0025956835
9900         0.0032202161
9910         0.0030340877
9920         0.0024390784
9930         0.0030389707
9940         0.0031877452
9950         0.0026618379
9960         0.0031962265
9970         0.0031253820
9980         0.0025718201
9990         0.0028443258
10000         0.0031668675
10010         0.0027688618
10020         0.0027925808
10030         0.0031411722
10040         0.0029362583
10050         0.0026052638
10060         0.0032138908
10070         0.0031245317
10080         0.0025773021
10090         0.0031576444
10100         0.0030361170
10110         0.0023890589
10120         0.0029524655
10130         0.0032075980
10140         0.0027480937
10150         0.0031070933
10160         0.0031064483
10170         0.0027208478
10180         0.0027680460
10190         0.0031962061
10200         0.0028261430
10210         0.0027295917
10220         0.0032113876
10230         0.0029574067
10240         0.0025406385
10250         0.0030983646
10260         0.0032051416
10270         0.0026032248
10280         0.0032156493
10290         0.0031850241
10300         0.0024680765
10310         0.0029276171
10320         0.0032113282
10330         0.0026855405
10340         0.0030029967
10350         0.0031774054
10360         0.0029226622
10370         0.0027553275
10380         0.0032131069
10390         0.0029124880
10400         0.0026394923
10410         0.0031594738
10420         0.0029517647
10430         0.0024401927
10440         0.0030735207
10450         0.0032344815
10460         0.0026464700
10470         0.0031421150
10480         0.0030650103
10490         0.0024084545
10500         0.0029066377
10510         0.0032009519
10520         0.0027623273
10530         0.0029775989
10540         0.0031658494
10550         0.0029248345
10560         0.0027054581
10570         0.0032036494
10580         0.0029700461
10590         0.0026274559
10600         0.0032577310
10610         0.0030420157
10620         0.0024872453
10630         0.0031174629
10640         0.0032076864
10650         0.0026326234
10660         0.0031145792
10670         0.0031086309
10680         0.0025232995
10690         0.0029052409
10700         0.0032256565
10710         0.0027295233
10720         0.0027679346
10730         0.0031337571
10740         0.0029575101
10750         0.0026183393
10760         0.0031789159
10770         0.0031394763
10780         0.0026184178
10790         0.0031889438
10800         0.0030509162
10810         0.0024125487
10820         0.0029386429
10830         0.0031765156
10840         0.0026551203
10850         0.0031597358
10860         0.0031613442
10870         0.0026444668
10880         0.0028926381
10890         0.0032494559
10900         0.0028363547
10910         0.0028138891
10920         0.0032008519
10930         0.0029974376
10940         0.0025656386
10950         0.0030997651
10960         0.0031426274
10970         0.0026219678
10980         0.0032578722
10990         0.0031557603
11000         0.0023954703
11010         0.0030455961
11020         0.0032400042
11030         0.0026927421
11040         0.0030057393
11050         0.0030881964
11060         0.0028451349
11070         0.0027455629
11080         0.0032220140
11090         0.0028336043
11100         0.0025952140
11110         0.0030711224
11120         0.0029095727
11130         0.0024538471
11140         0.0030655458
11150         0.0031812479
11160         0.0026708099
11170         0.0031574256
11180         0.0030287419
11190         0.0024044913
11200         0.0028119487
11210         0.0031550867
11220         0.0027400260
11230         0.0028998701
11240         0.0032621490
11250         0.0029958683
11260         0.0027133573
11270         0.0032413136
11280         0.0030004056
11290         0.0026693954
11300         0.0033022966
11310         0.0030777685
11320         0.0025909538
11330         0.0030826597
11340         0.0032063547
11350         0.0026539731
11360         0.0031157317
11370         0.0031246790
11380         0.0024574115
11390         0.0028997764
11400         0.0032411081
11410         0.0027584613
11420         0.0027797715
11430         0.0031348456
11440         0.0029185988
11450         0.0026260873
11460         0.0031254412
11470         0.0031032215
11480         0.0026838308
11490         0.0032078710