TITLE     = "Dataset"
VARIABLES = "Time" "Resid" 
ZONE I=2000 J=1 f=point 
10         0.5361886156
20         0.4230716387
30         0.3530774186
40         0.2984124187
50         0.2490691862
60         0.2091184891
70         0.1804330624
80         0.1689348266
90         0.1664546535
100         0.1668820982
110         0.1668599518
120         0.1625184237
130         0.1540083582
140         0.1451080689
150         0.1457111847
160         0.1419959600
170         0.1302470862
180         0.1177622141
190         0.1129457059
200         0.1133234261
210         0.1192629894
220         0.1273180561
230         0.1349742294
240         0.1395186114
250         0.1381525418
260         0.1284722929
270         0.1179361544
280         0.1102705134
290         0.1013218390
300         0.0998099856
310         0.1110652942
320         0.1126528468
330         0.1058199933
340         0.0969896034
350         0.1011052441
360         0.1035350892
370         0.1025775025
380         0.1029143330
390         0.0966468674
400         0.1011072838
410         0.1041733000
420         0.1006681741
430         0.1046164156
440         0.1097547937
450         0.1130017749
460         0.1193266051
470         0.1343837680
480         0.1361048267
490         0.1301412492
500         0.1354224378
510         0.1367777545
520         0.1390663245
530         0.1394470310
540         0.1499718661
550         0.1516621293
560         0.1597304023
570         0.1703414929
580         0.1530850415
590         0.1468204028
600         0.1576845380
610         0.1586529751
620         0.1533580254
630         0.1437704678
640         0.1457446026
650         0.1380612528
660         0.1345756808
670         0.1320047770
680         0.1221068973
690         0.1247984260
700         0.1348300426
710         0.1269314683
720         0.1315175856
730         0.1262298987
740         0.1148362861
750         0.1199656797
760         0.1171149976
770         0.1154797240
780         0.1147500351
790         0.1115758546
800         0.1140404156
810         0.1178196141
820         0.1115108157
830         0.1096545185
840         0.1110471181
850         0.1049035767
860         0.1065620490
870         0.1030421329
880         0.0997796396
890         0.0949375592
900         0.0983810962
910         0.0869382563
920         0.0856443938
930         0.0845596875
940         0.0819717699
950         0.0773047397
960         0.0698064492
970         0.0667730862
980         0.0652876972
990         0.0620267425
1000         0.0600884791
1010         0.0602013993
1020         0.0607916392
1030         0.0561905164
1040         0.0554269248
1050         0.0569100226
1060         0.0555701472
1070         0.0545575599
1080         0.0525861716
1090         0.0532856165
1100         0.0516320332
1110         0.0539294472
1120         0.0512924440
1130         0.0505421135
1140         0.0490052662
1150         0.0451728390
1160         0.0443560013
1170         0.0444038461
1180         0.0418831718
1190         0.0422989431
1200         0.0414720427
1210         0.0395335179
1220         0.0382516419
1230         0.0368444484
1240         0.0372635802
1250         0.0376416327
1260         0.0380528485
1270         0.0376682282
1280         0.0361299259
1290         0.0365732643
1300         0.0360218900
1310         0.0353969249
1320         0.0365778781
1330         0.0358465893
1340         0.0351234513
1350         0.0347259208
1360         0.0332023033
1370         0.0329300401
1380         0.0329906632
1390         0.0327628099
1400         0.0323773568
1410         0.0316954818
1420         0.0311583213
1430         0.0305675958
1440         0.0306835462
1450         0.0298666106
1460         0.0295949643
1470         0.0286806511
1480         0.0275996657
1490         0.0268415075
1500         0.0261110628
1510         0.0253264706
1520         0.0245198696
1530         0.0242454144
1540         0.0234907203
1550         0.0227589772
1560         0.0221434491
1570         0.0218384229
1580         0.0216825614
1590         0.0218997033
1600         0.0215950944
1610         0.0212531041
1620         0.0210262941
1630         0.0208241337
1640         0.0207421296
1650         0.0205651537
1660         0.0203102993
1670         0.0204621263
1680         0.0205711782
1690         0.0202742046
1700         0.0199282765
1710         0.0196406420
1720         0.0192344943
1730         0.0189714184
1740         0.0187624237
1750         0.0182470881
1760         0.0178209048
1770         0.0176216030
1780         0.0172364606
1790         0.0170204216
1800         0.0171593802
1810         0.0172308572
1820         0.0171729368
1830         0.0171762986
1840         0.0173064103
1850         0.0173756222
1860         0.0177202239
1870         0.0178942560
1880         0.0174385167
1890         0.0173120673
1900         0.0175790148
1910         0.0176166240
1920         0.0178853764
1930         0.0181956955
1940         0.0183797053
1950         0.0183407269
1960         0.0184330235
1970         0.0186174246
1980         0.0187388703
1990         0.0190607989
2000         0.0191410825
2010         0.0190331287
2020         0.0189170304
2030         0.0194638556
2040         0.0192075408
2050         0.0189939762
2060         0.0191622252
2070         0.0189589545
2080         0.0189695075
2090         0.0201563981
2100         0.0196050023
2110         0.0191334417
2120         0.0192067634
2130         0.0193824841
2140         0.0190322878
2150         0.0180253806
2160         0.0177959945
2170         0.0184159985
2180         0.0191566681
2190         0.0184240971
2200         0.0180463781
2210         0.0184595226
2220         0.0177980014
2230         0.0170354041
2240         0.0172362082
2250         0.0167753039
2260         0.0171373431
2270         0.0165671618
2280         0.0159384627
2290         0.0167252833
2300         0.0155533481
2310         0.0153812655
2320         0.0154442208
2330         0.0150415448
2340         0.0148672955
2350         0.0145181089
2360         0.0142264797
2370         0.0142625182
2380         0.0144515687
2390         0.0145268410
2400         0.0146518851
2410         0.0145325270
2420         0.0133959675
2430         0.0139559432
2440         0.0135021640
2450         0.0125870654
2460         0.0123027634
2470         0.0123367381
2480         0.0121765819
2490         0.0122261554
2500         0.0121903807
2510         0.0122563768
2520         0.0119721263
2530         0.0118544641
2540         0.0120389182
2550         0.0117173747
2560         0.0113732716
2570         0.0115479403
2580         0.0113657694
2590         0.0111793799
2600         0.0113299591
2610         0.0112242801
2620         0.0112377808
2630         0.0113504484
2640         0.0114883654
2650         0.0112444002
2660         0.0105339524
2670         0.0099827585
2680         0.0101038054
2690         0.0096192753
2700         0.0094343605
2710         0.0091869367
2720         0.0091446656
2730         0.0087511209
2740         0.0084920239
2750         0.0081206441
2760         0.0079965148
2770         0.0078954069
2780         0.0076133105
2790         0.0077338363
2800         0.0079205289
2810         0.0079926640
2820         0.0080149667
2830         0.0076589174
2840         0.0074412350
2850         0.0076259264
2860         0.0083667509
2870         0.0080664638
2880         0.0078680107
2890         0.0081481051
2900         0.0081985987
2910         0.0081948113
2920         0.0081554356
2930         0.0083541184
2940         0.0080522916
2950         0.0079494154
2960         0.0077900067
2970         0.0078081617
2980         0.0075466894
2990         0.0074961842
3000         0.0078640997
3010         0.0078055804
3020         0.0078505513
3030         0.0079271072
3040         0.0074440657
3050         0.0076044983
3060         0.0079268979
3070         0.0085968682
3080         0.0113524293
3090         0.0112560074
3100         0.0106550087
3110         0.0116123166
3120         0.0138996481
3130         0.0178951640
3140         0.0135759083
3150         0.0094214372
3160         0.0096435576
3170         0.0103876130
3180         0.0098071711
3190         0.0091681549
3200         0.0085277566
3210         0.0082996652
3220         0.0080837675
3230         0.0077520103
3240         0.0069777324
3250         0.0069286650
3260         0.0068154207
3270         0.0066120759
3280         0.0065026458
3290         0.0058334662
3300         0.0073558118
3310         0.0066525684
3320         0.0067597987
3330         0.0057626086
3340         0.0056440137
3350         0.0062828714
3360         0.0056741720
3370         0.0057311915
3380         0.0060648035
3390         0.0061490258
3400         0.0060974314
3410         0.0060806980
3420         0.0076251435
3430         0.0076676915
3440         0.0071888415
3450         0.0083311513
3460         0.0075214990
3470         0.0075281180
3480         0.0085118472
3490         0.0072123049
3500         0.0075975755
3510         0.0078759092
3520         0.0080635097
3530         0.0076341494
3540         0.0072957427
3550         0.0081867421
3560         0.0079325009
3570         0.0072318291
3580         0.0071290205
3590         0.0071960535
3600         0.0070809652
3610         0.0070634059
3620         0.0067498425
3630         0.0071887221
3640         0.0073584569
3650         0.0072311464
3660         0.0071922118
3670         0.0091566588
3680         0.0120258952
3690         0.0147705976
3700         0.0120390418
3710         0.0122460145
3720         0.0106085433
3730         0.0098377002
3740         0.0075180748
3750         0.0075197078
3760         0.0074205855
3770         0.0069618702
3780         0.0066464824
3790         0.0062635412
3800         0.0056675294
3810         0.0056136798
3820         0.0051715937
3830         0.0049396764
3840         0.0050120512
3850         0.0048578540
3860         0.0046570335
3870         0.0047893994
3880         0.0046254398
3890         0.0045581471
3900         0.0046146910
3910         0.0044128547
3920         0.0044014860
3930         0.0044569979
3940         0.0042974722
3950         0.0044127108
3960         0.0045286760
3970         0.0043632048
3980         0.0044708751
3990         0.0043864842
4000         0.0042073476
4010         0.0044842698
4020         0.0047068119
4030         0.0044690516
4040         0.0047430614
4050         0.0047617724
4060         0.0049407300
4070         0.0057790467
4080         0.0083358139
4090         0.0078082310
4100         0.0057442818
4110         0.0052254187
4120         0.0053224213
4130         0.0060097980
4140         0.0077383585
4150         0.0079043589
4160         0.0062780419
4170         0.0056770672
4180         0.0064721173
4190         0.0063917735
4200         0.0087348631
4210         0.0108169477
4220         0.0105634016
4230         0.0068324964
4240         0.0085380124
4250         0.0079736893
4260         0.0076616529
4270         0.0089018730
4280         0.0070409780
4290         0.0056200296
4300         0.0059213526
4310         0.0056480078
4320         0.0057030464
4330         0.0086327628
4340         0.0068033552
4350         0.0049748092
4360         0.0047217603
4370         0.0043522199
4380         0.0043058707
4390         0.0060826001
4400         0.0074212250
4410         0.0049280681
4420         0.0044001171
4430         0.0039684467
4440         0.0039718072
4450         0.0046929957
4460         0.0088046304
4470         0.0059308185
4480         0.0043848652
4490         0.0044454932
4500         0.0041118290
4510         0.0042306247
4520         0.0062258854
4530         0.0067775845
4540         0.0048031521
4550         0.0042682500
4560         0.0041043388
4570         0.0041378163
4580         0.0054484661
4590         0.0073959226
4600         0.0052310150
4610         0.0043826060
4620         0.0041647563
4630         0.0042682513
4640         0.0058980104
4650         0.0075364567
4660         0.0053234213
4670         0.0045837994
4680         0.0043804563
4690         0.0045568252
4700         0.0069274445
4710         0.0073499436
4720         0.0052974616
4730         0.0047492815
4740         0.0045401141
4750         0.0049070447
4760         0.0073554622
4770         0.0072922758
4780         0.0053717055
4790         0.0049194206
4800         0.0046046819
4810         0.0049364764
4820         0.0073654839
4830         0.0074394490
4840         0.0053578271
4850         0.0046799152
4860         0.0046563908
4870         0.0047496329
4880         0.0067244664
4890         0.0078301520
4900         0.0053637747
4910         0.0043235839
4920         0.0047089000
4930         0.0044178159
4940         0.0054627720
4950         0.0077291980
4960         0.0054216313
4970         0.0040700316
4980         0.0042828319
4990         0.0040711422
5000         0.0046117011
5010         0.0083426637
5020         0.0056465202
5030         0.0040874902
5040         0.0043093997
5050         0.0038475257
5060         0.0043579976
5070         0.0086642768
5080         0.0055695291
5090         0.0042313436
5100         0.0040477773
5110         0.0043086589
5120         0.0047259129
5130         0.0083464920
5140         0.0058653728
5150         0.0043088120
5160         0.0041954875
5170         0.0045518675
5180         0.0056002046
5190         0.0075588536
5200         0.0056416416
5210         0.0042168791
5220         0.0044404456
5230         0.0050079589
5240         0.0070847466
5250         0.0071830027
5260         0.0053088421
5270         0.0044128128
5280         0.0049245868
5290         0.0058500706
5300         0.0093359042
5310         0.0066430547
5320         0.0056244487
5330         0.0051313701
5340         0.0058348881
5350         0.0085513053
5360         0.0086362425
5370         0.0065886136
5380         0.0055864354
5390         0.0058529398
5400         0.0067320336
5410         0.0103555039
5420         0.0075659288
5430         0.0056770007
5440         0.0050815979
5450         0.0059048059
5460         0.0063149919
5470         0.0098775363
5480         0.0069931118
5490         0.0051561023
5500         0.0047359258
5510         0.0052880906
5520         0.0057202460
5530         0.0095543943
5540         0.0066121674
5550         0.0048319630
5560         0.0044810682
5570         0.0050697230
5580         0.0053811971
5590         0.0091420167
5600         0.0064435976
5610         0.0045419558
5620         0.0044852261
5630         0.0049269155
5640         0.0058187997
5650         0.0085405641
5660         0.0059775805
5670         0.0048147794
5680         0.0045981300
5690         0.0048221777
5700         0.0071091669
5710         0.0079023125
5720         0.0055853757
5730         0.0048360235
5740         0.0051363822
5750         0.0058968694
5760         0.0086858362
5770         0.0076449896
5780         0.0058903168
5790         0.0056517298
5800         0.0059404023
5810         0.0080328271
5820         0.0090608260
5830         0.0067209581
5840         0.0052365302
5850         0.0059632673
5860         0.0062648702
5870         0.0086051622
5880         0.0081599675
5890         0.0058998691
5900         0.0051183136
5910         0.0056185669
5920         0.0063127026
5930         0.0091122541
5940         0.0072243068
5950         0.0056056022
5960         0.0050343966
5970         0.0054564953
5980         0.0069808490
5990         0.0092565629
6000         0.0064843300
6010         0.0052769165
6020         0.0052377778
6030         0.0059571509
6040         0.0087012759
6050         0.0085594463
6060         0.0062737798
6070         0.0054857424
6080         0.0057226469
6090         0.0065336981
6100         0.0098245618
6110         0.0076378035
6120         0.0057984856
6130         0.0056204081
6140         0.0058155687
6150         0.0068723960
6160         0.0101819222
6170         0.0070303247
6180         0.0054329073
6190         0.0052398748
6200         0.0057237954
6210         0.0066675596
6220         0.0089138502
6230         0.0067856615
6240         0.0050167158
6250         0.0048751101
6260         0.0054193006
6270         0.0063317262
6280         0.0081979880
6290         0.0061763376
6300         0.0046950757
6310         0.0047592911
6320         0.0054339045
6330         0.0075920814
6340         0.0078815053
6350         0.0057945147
6360         0.0046348910
6370         0.0051244001
6380         0.0061985146
6390         0.0084400643
6400         0.0072691764
6410         0.0059389573
6420         0.0051347563
6430         0.0058394643
6440         0.0075779430
6450         0.0097610524
6460         0.0070827444
6470         0.0058160844
6480         0.0060056116
6490         0.0065751539
6500         0.0088952043
6510         0.0082592737
6520         0.0061226014
6530         0.0051296609
6540         0.0059172240
6550         0.0063327500
6560         0.0093885981
6570         0.0072756484
6580         0.0054521193
6590         0.0049729768
6600         0.0057510446
6610         0.0065844589
6620         0.0094080608
6630         0.0068471713
6640         0.0050933987
6650         0.0052304498
6660         0.0062421243
6670         0.0079709255
6680         0.0085437853
6690         0.0065532323
6700         0.0055429042
6710         0.0058810195
6720         0.0067858502
6730         0.0092493621
6740         0.0080239913
6750         0.0064717766
6760         0.0061034976
6770         0.0063896911
6780         0.0085554064
6790         0.0091733892
6800         0.0073693507
6810         0.0055135129
6820         0.0060741700
6830         0.0066359014
6840         0.0088441370
6850         0.0084055313
6860         0.0061122403
6870         0.0051292070
6880         0.0058494253
6890         0.0062741868
6900         0.0085668490
6910         0.0079386587
6920         0.0056739773
6930         0.0051334271
6940         0.0060145486
6950         0.0058505313
6960         0.0090423475
6970         0.0073507060
6980         0.0059179670
6990         0.0051771194
7000         0.0055476622
7010         0.0067911590
7020         0.0095150150
7030         0.0066844711
7040         0.0059385434
7050         0.0055712220
7060         0.0062098316
7070         0.0089741791
7080         0.0085553705
7090         0.0065219438
7100         0.0058146685
7110         0.0061448847
7120         0.0071726606
7130         0.0104669764
7140         0.0072274542
7150         0.0055729368
7160         0.0057922633
7170         0.0061430422
7180         0.0078993971
7190         0.0089968937
7200         0.0067022047
7210         0.0053138453
7220         0.0057997446
7230         0.0061693761
7240         0.0085109613
7250         0.0084403246
7260         0.0063043434
7270         0.0055160485
7280         0.0059132273
7290         0.0066982419
7300         0.0089935821
7310         0.0079042707
7320         0.0064998233
7330         0.0054219731
7340         0.0058513450
7350         0.0070197551
7360         0.0101381180
7370         0.0072694105
7380         0.0060611904
7390         0.0056686432
7400         0.0062832834
7410         0.0089229677
7420         0.0087398158
7430         0.0067705425
7440         0.0063157554
7450         0.0062316465
7460         0.0074893403
7470         0.0104184287
7480         0.0072199826
7490         0.0057763672
7500         0.0060258066
7510         0.0064972832
7520         0.0087839283
7530         0.0087970307
7540         0.0065787682
7550         0.0052196358
7560         0.0055326093
7570         0.0063317231
7580         0.0081603849
7590         0.0076573641
7600         0.0060725575
7610         0.0058250459
7620         0.0057317702
7630         0.0064393455
7640         0.0096181234
7650         0.0072644611
7660         0.0063796236
7670         0.0057657752
7680         0.0060647268
7690         0.0083252640
7700         0.0092848911
7710         0.0074452237
7720         0.0065975301
7730         0.0061095586
7740         0.0069628167
7750         0.0097447557
7760         0.0079535737
7770         0.0063629108
7780         0.0059226895
7790         0.0065573685
7800         0.0083090064
7810         0.0089861361
7820         0.0070506880
7830         0.0054262937
7840         0.0057779481
7850         0.0066532898
7860         0.0089627206
7870         0.0082937339
7880         0.0062692198
7890         0.0051802214
7900         0.0057601643
7910         0.0065783081
7920         0.0090378337
7930         0.0074694139
7940         0.0060732887
7950         0.0058404170
7960         0.0061354908
7970         0.0084469324
7980         0.0090634857
7990         0.0071307549
8000         0.0067514668
8010         0.0062330902
8020         0.0070116340
8030         0.0101171449
8040         0.0078959171
8050         0.0063378316
8060         0.0057019904
8070         0.0063468092
8080         0.0071749155
8090         0.0100090790
8100         0.0072185676
8110         0.0054794014
8120         0.0052854315
8130         0.0060001104
8140         0.0070285980
8150         0.0086575378
8160         0.0065592227
8170         0.0050324427
8180         0.0050550611
8190         0.0058391461
8200         0.0080825809
8210         0.0081667062
8220         0.0060717237
8230         0.0048046229
8240         0.0053630578
8250         0.0063605903
8260         0.0084936903
8270         0.0074826147
8280         0.0066486985
8290         0.0055014934
8300         0.0059866593
8310         0.0075398314
8320         0.0103222350
8330         0.0078410109
8340         0.0064843491
8350         0.0062931398
8360         0.0068157830
8370         0.0090935658
8380         0.0084516965
8390         0.0063647968
8400         0.0053419599
8410         0.0061132923
8420         0.0064893688
8430         0.0096329452
8440         0.0074944013
8450         0.0056971827
8460         0.0051458189
8470         0.0058115489
8480         0.0065118790
8490         0.0095187821
8500         0.0069522979
8510         0.0052373054
8520         0.0056535452
8530         0.0061422050
8540         0.0075110839
8550         0.0084639069
8560         0.0066374275
8570         0.0057562081
8580         0.0059596885
8590         0.0066751528
8600         0.0092542331
8610         0.0080987847
8620         0.0067886310
8630         0.0061425255
8640         0.0063449115
8650         0.0084615349
8660         0.0091641802
8670         0.0070990594
8680         0.0058148943
8690         0.0062185957
8700         0.0068879949
8710         0.0094175832
8720         0.0079770499
8730         0.0059672405
8740         0.0052305058
8750         0.0063444776
8760         0.0069782674
8770         0.0101949079
8780         0.0071868267
8790         0.0054165368
8800         0.0052520014
8810         0.0062644514
8820         0.0075376214
8830         0.0085060671
8840         0.0066997347
8850         0.0052790569
8860         0.0057975903
8870         0.0062692842
8880         0.0090056411
8890         0.0083273675
8900         0.0065042842
8910         0.0060667230
8920         0.0060497776
8930         0.0070001640
8940         0.0108873016
8950         0.0076926819
8960         0.0064745342
8970         0.0060224921
8980         0.0064895359
8990         0.0087138127
9000         0.0090506211
9010         0.0066939326
9020         0.0053179660
9030         0.0060711502
9040         0.0062787843
9050         0.0086595778
9060         0.0082273708
9070         0.0058107550
9080         0.0051320821
9090         0.0058406100
9100         0.0061265494
9110         0.0088800149
9120         0.0073175936
9130         0.0055891029
9140         0.0051352881
9150         0.0056742120
9160         0.0069867618
9170         0.0095634859
9180         0.0067504531
9190         0.0062830984
9200         0.0058386417
9210         0.0064344658
9220         0.0092753293
9230         0.0083084670
9240         0.0068687589
9250         0.0064470636
9260         0.0064654922
9270         0.0083346404
9280         0.0092430799
9290         0.0070712759
9300         0.0057769558
9310         0.0063329851
9320         0.0068559720
9330         0.0089334547
9340         0.0083046056
9350         0.0060678370
9360         0.0053525665
9370         0.0063602665
9380         0.0070005803
9390         0.0105785497
9400         0.0073016441
9410         0.0058093960
9420         0.0052947547
9430         0.0058477163
9440         0.0075890740
9450         0.0088876131
9460         0.0067290259
9470         0.0057074786
9480         0.0057644765
9490         0.0064824426
9500         0.0091149707
9510         0.0080683386
9520         0.0064456229
9530         0.0062198414
9540         0.0062422333
9550         0.0080810549
9560         0.0092940607
9570         0.0072157076
9580         0.0060405809
9590         0.0062543850
9600         0.0064490500
9610         0.0085142030
9620         0.0087808413
9630         0.0062643382
9640         0.0052895328
9650         0.0057497104
9660         0.0061480712
9670         0.0083063126
9680         0.0075648911
9690         0.0058244303
9700         0.0050106518
9710         0.0054383682
9720         0.0064194792
9730         0.0099498560
9740         0.0067564166
9750         0.0054274931
9760         0.0050301003
9770         0.0057132428
9780         0.0077677683
9790         0.0088052157
9800         0.0066556529
9810         0.0056463137
9820         0.0056689122
9830         0.0064313211
9840         0.0092001247
9850         0.0079462525
9860         0.0067957272
9870         0.0062979908
9880         0.0063426115
9890         0.0083863008
9900         0.0091996220
9910         0.0070211770
9920         0.0058929923
9930         0.0060648155
9940         0.0067924885
9950         0.0089130676
9960         0.0083841619
9970         0.0063270175
9980         0.0051885806
9990         0.0055759993
10000         0.0063759693
10010         0.0086612901
10020         0.0073226321
10030         0.0057174365
10040         0.0050266690
10050         0.0055924617
10060         0.0069385783
10070         0.0099227309
10080         0.0067903603
10090         0.0057239953
10100         0.0055024235
10110         0.0061071092
10120         0.0089336453
10130         0.0087838211
10140         0.0071942725
10150         0.0063713971
10160         0.0061317198
10170         0.0070398820
10180         0.0107260700
10190         0.0076554417
10200         0.0065176874
10210         0.0057326401
10220         0.0064553991
10230         0.0071983255
10240         0.0093848635
10250         0.0070808207
10260         0.0052951769
10270         0.0052196780
10280         0.0057252364
10290         0.0070841947
10300         0.0081258447
10310         0.0061661814
10320         0.0048977231
10330         0.0050771206
10340         0.0059645740
10350         0.0083878397
10360         0.0077827758
10370         0.0060284323
10380         0.0049155603
10390         0.0056692729
10400         0.0068676649
10410         0.0096322544
10420         0.0076379270
10430         0.0066392291
10440         0.0057253821
10450         0.0062578230
10460         0.0084792795
10470         0.0091362175
10480         0.0076799816
10490         0.0064738250
10500         0.0066913462
10510         0.0072725196
10520         0.0107651143
10530         0.0076799038
10540         0.0058708695
10550         0.0054264454
10560         0.0061713587
10570         0.0071216946
10580         0.0090483970
10590         0.0067523959
10600         0.0052025118
10610         0.0050962031
10620         0.0058514818
10630         0.0075977268
10640         0.0081473443
10650         0.0063525756
10660         0.0049837674
10670         0.0056950586
10680         0.0067699384
10690         0.0090135889
10700         0.0080730408
10710         0.0064752347
10720         0.0060144328
10730         0.0062343908
10740         0.0078869917
10750         0.0099685994
10760         0.0074032444
10770         0.0064161963
10780         0.0063003659
10790         0.0068138047
10800         0.0091478812
10810         0.0084427900
10820         0.0064663909
10830         0.0054249062
10840         0.0062370555
10850         0.0067231191
10860         0.0095836364
10870         0.0079572227
10880         0.0057431175
10890         0.0051695687
10900         0.0059767463
10910         0.0064080607
10920         0.0099496839
10930         0.0070781197
10940         0.0052692326
10950         0.0051904920
10960         0.0061318685
10970         0.0075594268
10980         0.0086490275
10990         0.0067066412
11000         0.0058811514
11010         0.0058291951
11020         0.0063014608
11030         0.0091374750
11040         0.0084260595
11050         0.0070113044
11060         0.0061298237
11070         0.0061870879
11080         0.0071711924
11090         0.0107738834
11100         0.0074671946
11110         0.0063562766
11120         0.0061179027
11130         0.0067311914
11140         0.0090452483
11150         0.0085477614
11160         0.0063297934
11170         0.0052516461
11180         0.0063719827
11190         0.0066588375
11200         0.0092383357
11210         0.0079799743
11220         0.0058055880
11230         0.0053343534
11240         0.0061627375
11250         0.0071225960
11260         0.0102257771
11270         0.0070495920
11280         0.0057198502
11290         0.0056641048
11300         0.0062025598
11310         0.0083234147
11320         0.0088367865
11330         0.0068425084
11340         0.0064006387
11350         0.0061311602
11360         0.0068797811
11370         0.0102821826
11380         0.0077649841
11390         0.0068711048
11400         0.0063079242
11410         0.0066477020
11420         0.0089115286
11430         0.0089566849
11440         0.0065687290
11450         0.0054238973
11460         0.0063076299
11470         0.0066005594
11480         0.0087516423
11490         0.0081489551